file 28758767 1776943701                                        
version 2
run General-0-20260423-11:18:54-7412
attr configname General
attr datetime 20260423-11:18:54
attr datetimef 20260423-111854
attr experiment General
attr inifile omnetpp.ini
attr iterationvars ""
attr iterationvarsd ""
attr iterationvarsf ""
attr measurement ""
attr network RSVPTE4
attr processid 7412
attr repetition 0
attr replication #0
attr resultdir results
attr runnumber 0
attr seedset 0
config debug-on-errors true
config image-path ../../../images
config network RSVPTE4
config sim-time-limit 50s
config total-stack 64MiB
config **.host{1..2,5}.numApps 1
config **.host{1..2,5}.app[*].typename UdpBasicApp
config **.host{1..2,5}.app[0].localPort 100
config **.host{1..2,5}.app[0].destPort 100
config **.host{1..2,5}.app[0].messageLength "128 bytes"
config **.host{1..2,5}.app[0].sendInterval 0.01s
config **.host{1..2,5}.app[0].destAddresses "\"host3\""
config **.host3.numApps 1
config **.host3.app[0].typename UdpSink
config **.host3.app[0].localPort 100
config **.host1.ipv4.routingTable.routingFile "\"host1.rt\""
config **.host2.ipv4.routingTable.routingFile "\"host2.rt\""
config **.host3.ipv4.routingTable.routingFile "\"host3.rt\""
config **.host4.ipv4.routingTable.routingFile "\"host4.rt\""
config **.host5.ipv4.routingTable.routingFile "\"host5.rt\""
config **.LSR1.classifier.config "xmldoc(\"LSR1_fec.xml\")"
config **.LSR1.rsvp.traffic "xmldoc(\"LSR1_rsvp.xml\")"
config **.LSR*.rsvp.helloInterval 0.2s
config **.LSR*.rsvp.helloTimeout 0.5s
config **.LSR1.ipv4.routingTable.routingFile "\"LSR1.rt\""
config **.LSR2.ipv4.routingTable.routingFile "\"LSR2.rt\""
config **.LSR3.ipv4.routingTable.routingFile "\"LSR3.rt\""
config **.LSR4.ipv4.routingTable.routingFile "\"LSR4.rt\""
config **.LSR5.ipv4.routingTable.routingFile "\"LSR5.rt\""
config **.LSR6.ipv4.routingTable.routingFile "\"LSR6.rt\""
config **.LSR7.ipv4.routingTable.routingFile "\"LSR7.rt\""
config **.ppp[*].queue.typename DropTailQueue
config **.ppp[*].queue.packetCapacity 10
config **.scenarioManager.script "xml(\"<scenario/>\")"

vector 0 RSVPTE4.LSR1.ppp[0].queue queueLength:vector ETV
attr autoWarmupFilter false
attr interpolationmode sample-hold
attr recordingmode vector
attr source "warmup(atomic(constant0(packetPushEnded) + count(packetPushStarted) - count(packetPulled) - count(packetRemoved) - count(packetDropped)))"
attr title "queue length"
attr unit pk
0	69740 431 0 1007 0 0.06231604212 21 0 4 24 62
0	125566 30441 1023 33934 0.064489375453 3.3944 1259 0 4 709 1007
0	2028829 166 33986 34116 3.400017959627 3.4144 7 0 1 2 2
0	2040260 192 34181 34332 3.422173333333 3.442173333333 8 0 1 3 3
0	2051856 18 34345 34345 3.4444 3.4444 1 0 0 0 0
0	2055386 192094 34406 245712 3.452173333333 28.7644 7747 0 3 2587 2647
0	16365320 164748 245782 422878 28.772173333333 49.9944 6495 0 3 2167 2215
vector 1 RSVPTE4.LSR1.ppp[0].queue queueBitLength:vector ETV
attr autoWarmupFilter false
attr interpolationmode sample-hold
attr recordingmode vector
attr source "warmup(atomic(constant0(packetPushEnded) + sum(packetLength(packetPushStarted)) - sum(packetLength(packetPulled)) - sum(packetLength(packetRemoved)) - sum(packetLength(packetDropped))))"
attr title "queue bit length"
attr unit b
1	70171 464 0 1007 0 0.06231604212 21 0 5056 30208 98179072
1	156007 32143 1023 33934 0.064489375453 3.3944 1259 0 3912 866880 1483721088
1	2028995 172 33986 34116 3.400017959627 3.4144 7 0 1280 2560 3276800
1	2040452 201 34181 34332 3.422173333333 3.442173333333 8 0 1280 3840 4915200
1	2051874 18 34345 34345 3.4444 3.4444 1 0 0 0 0
1	2247480 199770 34406 245712 3.452173333333 28.7644 7747 0 2728 3285520 4239182080
1	16530068 171181 245782 422878 28.772173333333 49.9944 6495 0 2728 2753088 3550925824
vector 2 RSVPTE4.LSR1.ppp[0].ppp transmissionState:vector ETV
attr interpolationmode sample-hold
attr recordingmode vector
attr source transmissionStateChanged
attr title "tx state"
2	70635 416 0 1007 0 0.06231604212 18 0 1 9 9
2	188150 37669 1023 33956 0.064489375453 3.396626666667 1611 0 1 805 805
2	2029167 201 33986 34116 3.400017959627 3.4144 9 0 1 5 5
2	2037793 26 34132 34132 3.416626666667 3.416626666667 1 0 0 0 0
2	2040653 202 34181 34331 3.422173333333 3.442173333333 9 0 1 5 5
2	2051892 62 34345 34357 3.4444 3.446626666667 3 0 1 1 1
2	2447250 244528 34406 245724 3.452173333333 28.766626666667 10400 0 1 5200 5200
2	16701249 209990 245782 422900 28.772173333333 49.996626666667 8720 0 1 4360 4360
vector 3 RSVPTE4.LSR1.ppp[1].queue queueLength:vector ETV
attr autoWarmupFilter false
attr interpolationmode sample-hold
attr recordingmode vector
attr source "warmup(atomic(constant0(packetPushEnded) + count(packetPushStarted) - count(packetPulled) - count(packetRemoved) - count(packetDropped)))"
attr title "queue length"
attr unit pk
3	71051 236 0 978 0 0.060956042121 13 0 1 3 3
3	225819 6983 1696 33922 0.101684561501 3.392173333333 271 0 2 10 14
3	2029368 52 34021 34104 3.402173333333 3.412173333333 2 0 0 0 0
3	2040855 78 34183 34333 3.422173333333 3.442173333333 3 0 0 0 0
3	2691778 73012 34408 245700 3.452173333333 28.762173333333 2664 0 0 0 0
3	16911239 62472 245784 422866 28.772173333333 49.992173333333 2233 0 0 0 0
vector 4 RSVPTE4.LSR1.ppp[1].queue queueBitLength:vector ETV
attr autoWarmupFilter false
attr interpolationmode sample-hold
attr recordingmode vector
attr source "warmup(atomic(constant0(packetPushEnded) + sum(packetLength(packetPushStarted)) - sum(packetLength(packetPulled)) - sum(packetLength(packetRemoved)) - sum(packetLength(packetDropped))))"
attr title "queue bit length"
attr unit b
4	71287 245 0 978 0 0.060956042121 13 0 9376 13728 98872320
4	232802 7003 1696 33922 0.101684561501 3.392173333333 271 0 2016 8424 11161152
4	2029420 52 34021 34104 3.402173333333 3.412173333333 2 0 0 0 0
4	2040933 78 34183 34333 3.422173333333 3.442173333333 3 0 0 0 0
4	2764790 73012 34408 245700 3.452173333333 28.762173333333 2664 0 0 0 0
4	16973711 62472 245784 422866 28.772173333333 49.992173333333 2233 0 0 0 0
vector 5 RSVPTE4.LSR1.ppp[1].ppp transmissionState:vector ETV
attr interpolationmode sample-hold
attr recordingmode vector
attr source transmissionStateChanged
attr title "tx state"
5	71532 224 0 978 0 0.060956042121 10 0 1 5 5
5	239805 11808 1039 33935 0.066116042121 3.3944 531 0 1 265 265
5	2029472 70 34021 34104 3.402173333333 3.412173333333 3 0 1 2 2
5	2037819 18 34117 34117 3.4144 3.4144 1 0 0 0 0
5	2041011 114 34183 34333 3.422173333333 3.442173333333 5 0 1 3 3
5	2051954 18 34346 34346 3.4444 3.4444 1 0 0 0 0
5	2837802 125452 34408 245713 3.452173333333 28.7644 5328 0 1 2664 2664
5	17036183 107694 245784 422879 28.772173333333 49.9944 4466 0 1 2233 2233
vector 6 RSVPTE4.LSR1.ppp[2].queue queueLength:vector ETV
attr autoWarmupFilter false
attr interpolationmode sample-hold
attr recordingmode vector
attr source "warmup(atomic(constant0(packetPushEnded) + count(packetPushStarted) - count(packetPulled) - count(packetRemoved) - count(packetDropped)))"
attr title "queue length"
attr unit pk
6	71756 117 0 723 0 0.042173333333 8 0 0 0 0
vector 7 RSVPTE4.LSR1.ppp[2].queue queueBitLength:vector ETV
attr autoWarmupFilter false
attr interpolationmode sample-hold
attr recordingmode vector
attr source "warmup(atomic(constant0(packetPushEnded) + sum(packetLength(packetPushStarted)) - sum(packetLength(packetPulled)) - sum(packetLength(packetRemoved)) - sum(packetLength(packetDropped))))"
attr title "queue bit length"
attr unit b
7	71873 117 0 723 0 0.042173333333 8 0 0 0 0
vector 8 RSVPTE4.LSR1.ppp[2].ppp transmissionState:vector ETV
attr interpolationmode sample-hold
attr recordingmode vector
attr source transmissionStateChanged
attr title "tx state"
8	71990 153 0 743 0 0.043013333333 7 0 1 3 3
vector 9 RSVPTE4.LSR1.ppp[3].queue queueLength:vector ETV
attr autoWarmupFilter false
attr interpolationmode sample-hold
attr recordingmode vector
attr source "warmup(atomic(constant0(packetPushEnded) + count(packetPushStarted) - count(packetPulled) - count(packetRemoved) - count(packetDropped)))"
attr title "queue length"
attr unit pk
9	72143 117 0 722 0 0.042173333333 8 0 0 0 0
vector 10 RSVPTE4.LSR1.ppp[3].queue queueBitLength:vector ETV
attr autoWarmupFilter false
attr interpolationmode sample-hold
attr recordingmode vector
attr source "warmup(atomic(constant0(packetPushEnded) + sum(packetLength(packetPushStarted)) - sum(packetLength(packetPulled)) - sum(packetLength(packetRemoved)) - sum(packetLength(packetDropped))))"
attr title "queue bit length"
attr unit b
10	72260 125 0 722 0 0.042173333333 8 0 0 0 0
vector 11 RSVPTE4.LSR1.ppp[3].ppp transmissionState:vector ETV
attr interpolationmode sample-hold
attr recordingmode vector
attr source transmissionStateChanged
attr title "tx state"
11	72385 160 0 742 0 0.043013333333 7 0 1 3 3
vector 12 RSVPTE4.LSR1.ppp[4].queue queueLength:vector ETV
attr autoWarmupFilter false
attr interpolationmode sample-hold
attr recordingmode vector
attr source "warmup(atomic(constant0(packetPushEnded) + count(packetPushStarted) - count(packetPulled) - count(packetRemoved) - count(packetDropped)))"
attr title "queue length"
attr unit pk
12	72545 125 0 724 0 0.042173333333 8 0 0 0 0
vector 13 RSVPTE4.LSR1.ppp[4].queue queueBitLength:vector ETV
attr autoWarmupFilter false
attr interpolationmode sample-hold
attr recordingmode vector
attr source "warmup(atomic(constant0(packetPushEnded) + sum(packetLength(packetPushStarted)) - sum(packetLength(packetPulled)) - sum(packetLength(packetRemoved)) - sum(packetLength(packetDropped))))"
attr title "queue bit length"
attr unit b
13	72670 125 0 724 0 0.042173333333 8 0 0 0 0
vector 14 RSVPTE4.LSR1.ppp[4].ppp transmissionState:vector ETV
attr interpolationmode sample-hold
attr recordingmode vector
attr source transmissionStateChanged
attr title "tx state"
14	72795 160 0 744 0 0.043013333333 7 0 1 3 3
vector 15 RSVPTE4.LSR2.ppp[0].queue queueLength:vector ETV
attr autoWarmupFilter false
attr interpolationmode sample-hold
attr recordingmode vector
attr source "warmup(atomic(constant0(packetPushEnded) + count(packetPushStarted) - count(packetPulled) - count(packetRemoved) - count(packetDropped)))"
attr title "queue length"
attr unit pk
15	72955 325 0 959 0 0.059836042121 16 0 2 6 8
15	251613 1244 1289 33939 0.085364561501 3.39508541103 50 0 3 20 40
15	2963254 3705 35601 244293 3.59508541103 28.59508541103 136 0 0 0 0
15	17143877 3200 245955 422883 28.79508541103 49.99508541103 115 0 0 0 0
vector 16 RSVPTE4.LSR2.ppp[0].queue queueBitLength:vector ETV
attr autoWarmupFilter false
attr interpolationmode sample-hold
attr recordingmode vector
attr source "warmup(atomic(constant0(packetPushEnded) + sum(packetLength(packetPushStarted)) - sum(packetLength(packetPulled)) - sum(packetLength(packetRemoved)) - sum(packetLength(packetDropped))))"
attr title "queue bit length"
attr unit b
16	73280 341 0 959 0 0.059836042121 16 0 10528 21120 144306176
16	252857 1271 1289 33939 0.085364561501 3.39508541103 50 0 1688 11032 12826048
16	2966959 3705 35601 244293 3.59508541103 28.59508541103 136 0 0 0 0
16	17147077 3200 245955 422883 28.79508541103 49.99508541103 115 0 0 0 0
vector 17 RSVPTE4.LSR2.ppp[0].ppp transmissionState:vector ETV
attr interpolationmode sample-hold
attr recordingmode vector
attr source transmissionStateChanged
attr title "tx state"
17	73621 360 0 983 0 0.062116042121 15 0 1 7 7
17	254128 2135 1289 33944 0.085364561501 3.395458744363 84 0 1 42 42
17	2970664 7571 35601 244298 3.59508541103 28.595458744363 272 0 1 136 136
17	17150277 6535 245955 422888 28.79508541103 49.995458744363 230 0 1 115 115
vector 18 RSVPTE4.LSR2.ppp[1].queue queueLength:vector ETV
attr autoWarmupFilter false
attr interpolationmode sample-hold
attr recordingmode vector
attr source "warmup(atomic(constant0(packetPushEnded) + count(packetPushStarted) - count(packetPulled) - count(packetRemoved) - count(packetDropped)))"
attr title "queue length"
attr unit pk
18	73981 225 0 960 0 0.059836042121 12 0 2 4 6
18	256263 14382 1114 33969 0.072969375454 3.3994 611 0 2 54 66
18	2029542 19 34062 34062 3.4094 3.4094 1 0 0 0 0
18	2037837 19 34145 34145 3.4194 3.4194 1 0 0 0 0
18	2041125 38 34220 34295 3.4294 3.4394 2 0 0 0 0
18	2051972 19 34370 34370 3.4494 3.4494 1 0 0 0 0
18	2978235 58953 34445 245662 3.4594 28.7594 2790 0 1 127 127
18	17156812 50766 245746 422913 28.7694 49.9994 2340 0 1 106 106
vector 19 RSVPTE4.LSR2.ppp[1].queue queueBitLength:vector ETV
attr autoWarmupFilter false
attr interpolationmode sample-hold
attr recordingmode vector
attr source "warmup(atomic(constant0(packetPushEnded) + sum(packetLength(packetPushStarted)) - sum(packetLength(packetPulled)) - sum(packetLength(packetRemoved)) - sum(packetLength(packetDropped))))"
attr title "queue bit length"
attr unit b
19	74206 234 0 960 0 0.059836042121 12 0 4928 9856 39081984
19	270645 14500 1114 33969 0.072969375454 3.3994 611 0 2496 40728 52152000
19	2029561 19 34062 34062 3.4094 3.4094 1 0 0 0 0
19	2037856 19 34145 34145 3.4194 3.4194 1 0 0 0 0
19	2041163 38 34220 34295 3.4294 3.4394 2 0 0 0 0
19	2051991 19 34370 34370 3.4494 3.4494 1 0 0 0 0
19	3037188 59207 34445 245662 3.4594 28.7594 2790 0 168 21336 3584448
19	17207578 50978 245746 422913 28.7694 49.9994 2340 0 168 17808 2991744
vector 20 RSVPTE4.LSR2.ppp[1].ppp transmissionState:vector ETV
attr interpolationmode sample-hold
attr recordingmode vector
attr source transmissionStateChanged
attr title "tx state"
20	74440 260 0 984 0 0.062116042121 11 0 1 5 5
20	285145 28285 1114 33969 0.072969375454 3.3994 1137 0 1 569 569
20	2029580 73 34004 34087 3.401626666667 3.411626666667 3 0 1 1 1
20	2037875 19 34145 34145 3.4194 3.4194 1 1 1 1 1
20	2041201 119 34166 34316 3.421626666667 3.441626666667 5 0 1 2 2
20	2052010 19 34370 34370 3.4494 3.4494 1 1 1 1 1
20	3096395 130032 34391 245683 3.451626666667 28.761626666667 5327 0 1 2663 2663
20	17258556 111573 245746 422913 28.7694 49.9994 4467 0 1 2234 2234
vector 21 RSVPTE4.LSR2.ppp[2].queue queueLength:vector ETV
attr autoWarmupFilter false
attr interpolationmode sample-hold
attr recordingmode vector
attr source "warmup(atomic(constant0(packetPushEnded) + count(packetPushStarted) - count(packetPulled) - count(packetRemoved) - count(packetDropped)))"
attr title "queue length"
attr unit pk
21	74700 300 0 757 0 0.043076042121 15 0 3 12 24
21	313430 7366 1360 33909 0.088645161161 3.391626666667 276 0 1 4 4
21	2029653 54 34008 34091 3.401626666667 3.411626666667 2 0 0 0 0
21	2041320 81 34170 34320 3.421626666667 3.441626666667 3 0 0 0 0
21	3226427 75706 34395 245687 3.451626666667 28.761626666667 2664 0 0 0 0
21	17370129 64729 245771 422853 28.771626666667 49.991626666667 2233 0 0 0 0
vector 22 RSVPTE4.LSR2.ppp[2].queue queueBitLength:vector ETV
attr autoWarmupFilter false
attr interpolationmode sample-hold
attr recordingmode vector
attr source "warmup(atomic(constant0(packetPushEnded) + sum(packetLength(packetPushStarted)) - sum(packetLength(packetPulled)) - sum(packetLength(packetRemoved)) - sum(packetLength(packetDropped))))"
attr title "queue bit length"
attr unit b
22	75000 321 0 757 0 0.043076042121 15 0 7968 36480 221245440
22	320796 7374 1360 33909 0.088645161161 3.391626666667 276 0 736 2944 2166784
22	2029707 54 34008 34091 3.401626666667 3.411626666667 2 0 0 0 0
22	2041401 81 34170 34320 3.421626666667 3.441626666667 3 0 0 0 0
22	3302133 75706 34395 245687 3.451626666667 28.761626666667 2664 0 0 0 0
22	17434858 64729 245771 422853 28.771626666667 49.991626666667 2233 0 0 0 0
vector 23 RSVPTE4.LSR2.ppp[2].ppp transmissionState:vector ETV
attr interpolationmode sample-hold
attr recordingmode vector
attr source transmissionStateChanged
attr title "tx state"
23	75321 310 0 793 0 0.046316042121 13 0 1 6 6
23	328170 14553 1360 33926 0.088645161161 3.393853333334 544 0 1 272 272
23	2029761 108 34008 34108 3.401626666667 3.413853333334 4 0 1 2 2
23	2041482 135 34170 34320 3.421626666667 3.441626666667 5 0 1 3 3
23	2052029 27 34337 34337 3.443853333334 3.443853333334 1 0 0 0 0
23	3377839 151447 34395 245704 3.451626666667 28.763853333334 5328 0 1 2664 2664
23	17499587 129486 245771 422870 28.771626666667 49.993853333334 4466 0 1 2233 2233
vector 24 RSVPTE4.LSR3.ppp[0].queue queueLength:vector ETV
attr autoWarmupFilter false
attr interpolationmode sample-hold
attr recordingmode vector
attr source "warmup(atomic(constant0(packetPushEnded) + count(packetPushStarted) - count(packetPulled) - count(packetRemoved) - count(packetDropped)))"
attr title "queue length"
attr unit pk
24	75631 350 0 857 0 0.050638745046 17 0 4 21 57
24	342723 1135 1361 33225 0.088645161161 3.310209697334 44 0 2 6 8
24	3529286 3753 34887 245241 3.510209697334 28.710209697334 132 0 0 0 0
24	17629073 3190 246903 422169 28.910209697334 49.910209697334 110 0 0 0 0
vector 25 RSVPTE4.LSR3.ppp[0].queue queueBitLength:vector ETV
attr autoWarmupFilter false
attr interpolationmode sample-hold
attr recordingmode vector
attr source "warmup(atomic(constant0(packetPushEnded) + sum(packetLength(packetPushStarted)) - sum(packetLength(packetPulled)) - sum(packetLength(packetRemoved)) - sum(packetLength(packetDropped))))"
attr title "queue bit length"
attr unit b
25	75981 378 0 857 0 0.050638745046 17 0 10848 54048 386651136
25	343858 1145 1361 33225 0.088645161161 3.310209697334 44 0 952 3376 2578048
25	3533039 3753 34887 245241 3.510209697334 28.710209697334 132 0 0 0 0
25	17632263 3190 246903 422169 28.910209697334 49.910209697334 110 0 0 0 0
vector 26 RSVPTE4.LSR3.ppp[0].ppp transmissionState:vector ETV
attr interpolationmode sample-hold
attr recordingmode vector
attr source transmissionStateChanged
attr title "tx state"
26	76359 360 0 885 0 0.052918745046 15 0 1 7 7
26	345003 2065 1361 33231 0.088645161161 3.310583030667 80 0 1 40 40
26	3536792 7506 34887 245247 3.510209697334 28.710583030667 264 0 1 132 132
26	17635453 6380 246903 422175 28.910209697334 49.910583030667 220 0 1 110 110
vector 27 RSVPTE4.LSR3.ppp[1].queue queueLength:vector ETV
attr autoWarmupFilter false
attr interpolationmode sample-hold
attr recordingmode vector
attr source "warmup(atomic(constant0(packetPushEnded) + count(packetPushStarted) - count(packetPulled) - count(packetRemoved) - count(packetDropped)))"
attr title "queue length"
attr unit pk
27	76719 225 0 584 0 0.035291281637 12 0 2 7 11
27	347068 821 1997 33943 0.118413754323 3.395401285279 32 0 1 3 3
27	3544298 3582 35605 244297 3.595401285279 28.595401285279 126 0 0 0 0
27	17641833 3103 245959 422887 28.795401285279 49.995401285279 107 0 0 0 0
vector 28 RSVPTE4.LSR3.ppp[1].queue queueBitLength:vector ETV
attr autoWarmupFilter false
attr interpolationmode sample-hold
attr recordingmode vector
attr source "warmup(atomic(constant0(packetPushEnded) + sum(packetLength(packetPushStarted)) - sum(packetLength(packetPulled)) - sum(packetLength(packetRemoved)) - sum(packetLength(packetDropped))))"
attr title "queue bit length"
attr unit b
28	76944 240 0 584 0 0.035291281637 12 0 9536 28192 205061120
28	347889 827 1997 33943 0.118413754323 3.395401285279 32 0 736 2208 1625088
28	3547880 3582 35605 244297 3.595401285279 28.595401285279 126 0 0 0 0
28	17644936 3103 245959 422887 28.795401285279 49.995401285279 107 0 0 0 0
vector 29 RSVPTE4.LSR3.ppp[1].ppp transmissionState:vector ETV
attr interpolationmode sample-hold
attr recordingmode vector
attr source transmissionStateChanged
attr title "tx state"
29	77184 210 0 614 0 0.037571281637 9 0 1 4 4
29	348716 1490 1997 33945 0.118413754323 3.395774618612 58 0 1 29 29
29	3551462 7164 35605 244299 3.595401285279 28.595774618612 252 0 1 126 126
29	17648039 6206 245959 422889 28.795401285279 49.995774618612 214 0 1 107 107
vector 30 RSVPTE4.LSR3.ppp[2].queue queueLength:vector ETV
attr autoWarmupFilter false
attr interpolationmode sample-hold
attr recordingmode vector
attr source "warmup(atomic(constant0(packetPushEnded) + count(packetPushStarted) - count(packetPulled) - count(packetRemoved) - count(packetDropped)))"
attr title "queue length"
attr unit pk
30	77394 350 0 911 0 0.055438745046 17 0 3 19 45
30	350206 5710 1362 33970 0.088645161161 3.3994 282 0 2 10 14
30	2029869 19 34063 34063 3.4094 3.4094 1 0 0 0 0
30	2037894 19 34146 34146 3.4194 3.4194 1 0 0 0 0
30	2041617 38 34221 34296 3.4294 3.4394 2 0 0 0 0
30	2052056 19 34371 34371 3.4494 3.4494 1 0 0 0 0
30	3558626 55464 34446 245663 3.4594 28.7594 2663 0 0 0 0
30	17654245 47794 245747 422914 28.7694 49.9994 2234 0 0 0 0
vector 31 RSVPTE4.LSR3.ppp[2].queue queueBitLength:vector ETV
attr autoWarmupFilter false
attr interpolationmode sample-hold
attr recordingmode vector
attr source "warmup(atomic(constant0(packetPushEnded) + sum(packetLength(packetPushStarted)) - sum(packetLength(packetPulled)) - sum(packetLength(packetRemoved)) - sum(packetLength(packetDropped))))"
attr title "queue bit length"
attr unit b
31	77744 381 0 911 0 0.055438745046 17 0 17184 76768 885113856
31	355916 5728 1362 33970 0.088645161161 3.3994 282 0 1472 6792 7070272
31	2029888 19 34063 34063 3.4094 3.4094 1 0 0 0 0
31	2037913 19 34146 34146 3.4194 3.4194 1 0 0 0 0
31	2041655 38 34221 34296 3.4294 3.4394 2 0 0 0 0
31	2052075 19 34371 34371 3.4494 3.4494 1 0 0 0 0
31	3614090 55464 34446 245663 3.4594 28.7594 2663 0 0 0 0
31	17702039 47794 245747 422914 28.7694 49.9994 2234 0 0 0 0
vector 32 RSVPTE4.LSR3.ppp[2].ppp transmissionState:vector ETV
attr interpolationmode sample-hold
attr recordingmode vector
attr source transmissionStateChanged
attr title "tx state"
32	78125 360 0 943 0 0.057718745046 15 0 1 7 7
32	361644 12934 1362 33970 0.088645161161 3.3994 551 0 1 276 276
32	2029907 73 34005 34088 3.401626666667 3.411626666667 3 0 1 1 1
32	2037932 19 34146 34146 3.4194 3.4194 1 1 1 1 1
32	2041693 119 34167 34317 3.421626666667 3.441626666667 5 0 1 2 2
32	2052094 19 34371 34371 3.4494 3.4494 1 1 1 1 1
32	3669554 131170 34392 245684 3.451626666667 28.761626666667 5327 0 1 2663 2663
32	17749833 112523 245747 422914 28.7694 49.9994 4467 0 1 2234 2234
vector 33 RSVPTE4.LSR4.ppp[0].queue queueLength:vector ETV
attr autoWarmupFilter false
attr interpolationmode sample-hold
attr recordingmode vector
attr source "warmup(atomic(constant0(packetPushEnded) + count(packetPushStarted) - count(packetPulled) - count(packetRemoved) - count(packetDropped)))"
attr title "queue length"
attr unit pk
33	78485 347 0 930 0 0.056731281637 17 0 3 14 32
33	374578 1091 1241 33268 0.082325161161 3.315103839377 43 0 1 4 4
33	3800724 3718 34930 245284 3.515103839377 28.715103839377 132 0 0 0 0
33	17862356 3162 246946 422212 28.915103839377 49.915103839377 110 0 0 0 0
vector 34 RSVPTE4.LSR4.ppp[0].queue queueBitLength:vector ETV
attr autoWarmupFilter false
attr interpolationmode sample-hold
attr recordingmode vector
attr source "warmup(atomic(constant0(packetPushEnded) + sum(packetLength(packetPushStarted)) - sum(packetLength(packetPulled)) - sum(packetLength(packetRemoved)) - sum(packetLength(packetDropped))))"
attr title "queue bit length"
attr unit b
34	78832 372 0 930 0 0.056731281637 17 0 15456 62720 821653504
34	375669 1099 1241 33268 0.082325161161 3.315103839377 43 0 736 2424 1671744
34	3804442 3718 34930 245284 3.515103839377 28.715103839377 132 0 0 0 0
34	17865518 3162 246946 422212 28.915103839377 49.915103839377 110 0 0 0 0
vector 35 RSVPTE4.LSR4.ppp[0].ppp transmissionState:vector ETV
attr interpolationmode sample-hold
attr recordingmode vector
attr source transmissionStateChanged
attr title "tx state"
35	79204 405 0 950 0 0.059011281637 17 0 1 8 8
35	376768 1975 1241 33269 0.082325161161 3.31547717271 78 0 1 39 39
35	3808160 7344 34930 245285 3.515103839377 28.71547717271 264 0 1 132 132
35	17868680 6246 246946 422213 28.915103839377 49.91547717271 220 0 1 110 110
vector 36 RSVPTE4.LSR4.ppp[1].queue queueLength:vector ETV
attr autoWarmupFilter false
attr interpolationmode sample-hold
attr recordingmode vector
attr source "warmup(atomic(constant0(packetPushEnded) + count(packetPushStarted) - count(packetPulled) - count(packetRemoved) - count(packetDropped)))"
attr title "queue length"
attr unit pk
36	79609 223 0 440 0 0.030691281637 12 0 1 2 2
36	378743 16622 1082 33958 0.070631827828 3.396626666667 627 0 3 78 122
36	2029980 27 34051 34051 3.406626666667 3.406626666667 1 0 0 0 0
36	2037951 27 34134 34134 3.416626666667 3.416626666667 1 0 0 0 0
36	2041812 54 34209 34284 3.426626666667 3.436626666667 2 0 0 0 0
36	2052113 27 34359 34359 3.446626666667 3.446626666667 1 0 0 0 0
36	3815504 75705 34434 245726 3.456626666667 28.766626666667 2664 0 0 0 0
36	17874926 64729 245810 422902 28.776626666667 49.996626666667 2233 0 0 0 0
vector 37 RSVPTE4.LSR4.ppp[1].queue queueBitLength:vector ETV
attr autoWarmupFilter false
attr interpolationmode sample-hold
attr recordingmode vector
attr source "warmup(atomic(constant0(packetPushEnded) + sum(packetLength(packetPushStarted)) - sum(packetLength(packetPulled)) - sum(packetLength(packetRemoved)) - sum(packetLength(packetDropped))))"
attr title "queue bit length"
attr unit b
37	79832 229 0 440 0 0.030691281637 12 0 3040 4928 12806144
37	395365 16782 1082 33958 0.070631827828 3.396626666667 627 0 3232 72488 109165376
37	2030007 27 34051 34051 3.406626666667 3.406626666667 1 0 0 0 0
37	2037978 27 34134 34134 3.416626666667 3.416626666667 1 0 0 0 0
37	2041866 54 34209 34284 3.426626666667 3.436626666667 2 0 0 0 0
37	2052140 27 34359 34359 3.446626666667 3.446626666667 1 0 0 0 0
37	3891209 75705 34434 245726 3.456626666667 28.766626666667 2664 0 0 0 0
37	17939655 64729 245810 422902 28.776626666667 49.996626666667 2233 0 0 0 0
vector 38 RSVPTE4.LSR4.ppp[1].ppp transmissionState:vector ETV
attr interpolationmode sample-hold
attr recordingmode vector
attr source transmissionStateChanged
attr title "tx state"
38	80061 257 0 610 0 0.035851281637 11 0 1 5 5
38	412147 30686 1082 33964 0.070631827828 3.398853333334 1154 0 1 577 577
38	2030034 54 34051 34057 3.406626666667 3.408853333334 2 0 1 1 1
38	2038005 54 34134 34140 3.416626666667 3.418853333334 2 0 1 1 1
38	2041920 108 34209 34290 3.426626666667 3.438853333334 4 0 1 2 2
38	2052167 54 34359 34365 3.446626666667 3.448853333334 2 0 1 1 1
38	3966914 151381 34434 245726 3.456626666667 28.766626666667 5327 0 1 2664 2664
38	18004384 129487 245741 422908 28.768853333334 49.998853333334 4467 0 1 2233 2233
vector 39 RSVPTE4.LSR4.ppp[2].queue queueLength:vector ETV
attr autoWarmupFilter false
attr interpolationmode sample-hold
attr recordingmode vector
attr source "warmup(atomic(constant0(packetPushEnded) + count(packetPushStarted) - count(packetPulled) - count(packetRemoved) - count(packetDropped)))"
attr title "queue length"
attr unit pk
39	80318 247 0 974 0 0.06038461497 13 0 1 1 1
39	442833 920 1242 32337 0.082325161161 3.200774618612 35 0 1 4 4
39	2030088 27 33999 33999 3.400774618612 3.400774618612 1 0 0 0 0
39	4118295 3583 35661 244353 3.600774618612 28.600774618612 126 0 0 0 0
39	18133871 3074 246015 421281 28.800774618612 49.800774618612 106 0 0 0 0
vector 40 RSVPTE4.LSR4.ppp[2].queue queueBitLength:vector ETV
attr autoWarmupFilter false
attr interpolationmode sample-hold
attr recordingmode vector
attr source "warmup(atomic(constant0(packetPushEnded) + sum(packetLength(packetPushStarted)) - sum(packetLength(packetPulled)) - sum(packetLength(packetRemoved)) - sum(packetLength(packetDropped))))"
attr title "queue bit length"
attr unit b
40	80565 250 0 974 0 0.06038461497 13 0 1568 1568 2458624
40	443753 928 1242 32337 0.082325161161 3.200774618612 35 0 736 2376 1653312
40	2030115 27 33999 33999 3.400774618612 3.400774618612 1 0 0 0 0
40	4121878 3583 35661 244353 3.600774618612 28.600774618612 126 0 0 0 0
40	18136945 3074 246015 421281 28.800774618612 49.800774618612 106 0 0 0 0
vector 41 RSVPTE4.LSR4.ppp[2].ppp transmissionState:vector ETV
attr interpolationmode sample-hold
attr recordingmode vector
attr source transmissionStateChanged
attr title "tx state"
41	80815 356 0 1012 0 0.063091281637 15 0 1 7 7
41	444681 1632 1242 32339 0.082325161161 3.201147951945 62 0 1 31 31
41	2030142 54 33999 34001 3.400774618612 3.401147951945 2 0 1 1 1
41	4125461 7166 35661 244355 3.600774618612 28.601147951945 252 0 1 126 126
41	18140019 6148 246015 421283 28.800774618612 49.801147951945 212 0 1 106 106
vector 42 RSVPTE4.LSR5.ppp[0].queue queueLength:vector ETV
attr autoWarmupFilter false
attr interpolationmode sample-hold
attr recordingmode vector
attr source "warmup(atomic(constant0(packetPushEnded) + count(packetPushStarted) - count(packetPulled) - count(packetRemoved) - count(packetDropped)))"
attr title "queue length"
attr unit pk
42	81171 199 0 319 0 0.023411281637 11 0 2 4 6
42	446313 782 1155 32934 0.076005161161 3.276005161161 30 0 1 3 3
42	4132627 3931 34596 244950 3.476005161161 28.676005161161 142 0 1 5 5
42	18146167 3338 246612 421878 28.876005161161 49.876005161161 118 0 1 4 4
vector 43 RSVPTE4.LSR5.ppp[0].queue queueBitLength:vector ETV
attr autoWarmupFilter false
attr interpolationmode sample-hold
attr recordingmode vector
attr source "warmup(atomic(constant0(packetPushEnded) + sum(packetLength(packetPushStarted)) - sum(packetLength(packetPulled)) - sum(packetLength(packetRemoved)) - sum(packetLength(packetDropped))))"
attr title "queue bit length"
attr unit b
43	81370 208 0 319 0 0.023411281637 11 0 2624 5248 10328064
43	447095 788 1155 32934 0.076005161161 3.276005161161 30 0 736 1640 1111616
43	4136558 3941 34596 244950 3.476005161161 28.676005161161 142 0 208 1040 216320
43	18149505 3346 246612 421878 28.876005161161 49.876005161161 118 0 208 832 173056
vector 44 RSVPTE4.LSR5.ppp[0].ppp transmissionState:vector ETV
attr interpolationmode sample-hold
attr recordingmode vector
attr source transmissionStateChanged
attr title "tx state"
44	81578 208 0 349 0 0.025691281637 9 0 1 4 4
44	447883 1408 1155 32945 0.076005161161 3.276378494494 54 0 1 27 27
44	4140499 7648 34596 244961 3.476005161161 28.676378494494 274 0 1 137 137
44	18152851 6500 246612 421889 28.876005161161 49.876378494494 228 0 1 114 114
vector 45 RSVPTE4.LSR5.ppp[1].queue queueLength:vector ETV
attr autoWarmupFilter false
attr interpolationmode sample-hold
attr recordingmode vector